ITEM: TIMESTEP
0
ITEM: NUMBER OF ATOMS
864
ITEM: BOX BOUNDS pp pp pp
0.0000000000000000e+00 2.1120000000000001e+01
0.0000000000000000e+00 2.1120000000000001e+01
0.0000000000000000e+00 2.1120000000000001e+01
ITEM: ATOMS id type x y z
1 1 0 0 0
2 1 1.76 1.76 0
3 2 1.76 0 1.76
4 1 0 1.76 1.76
5 1 3.52 0 0
8 2 3.52 1.76 1.76
25 1 0 3.52 0
27 1 1.76 3.52 1.76
29 1 3.52 3.52 0
145 1 0 0 3.52
146 1 1.76 1.76 3.52
149 1 3.52 0 3.52
169 1 0 3.52 3.52
173 1 3.52 3.52 3.52
6 1 5.28 1.76 0
7 1 5.28 0 1.76
9 1 7.04 0 0
12 1 7.04 1.76 1.76
31 1 5.28 3.52 1.76
33 1 7.04 3.52 0
150 1 5.28 1.76 3.52
153 2 7.04 0 3.52
177 1 7.04 3.52 3.52
10 1 8.8 1.76 0
11 1 8.8 0 1.76
13 1 10.56 0 0
14 1 12.32 1.76 0
15 1 12.32 0 1.76
16 1 10.56 1.76 1.76
35 1 8.8 3.52 1.76
37 2 10.56 3.52 0
39 2 12.32 3.52 1.76
154 1 8.8 1.76 3.52
157 1 10.56 0 3.52
158 1 12.32 1.76 3.52
181 2 10.56 3.52 3.52
17 1 14.08 0 0
18 1 15.84 1.76 0
19 1 15.84 0 1.76
20 1 14.08 1.76 1.76
41 1 14.08 3.52 0
43 1 15.84 3.52 1.76
161 1 14.08 0 3.52
162 1 15.84 1.76 3.52
185 1 14.08 3.52 3.52
21 1 17.6 0 0
22 2 19.36 1.76 0
23 1 19.36 0 1.76
24 1 17.6 1.76 1.76
45 1 17.6 3.52 0
47 1 19.36 3.52 1.76
165 1 17.6 0 3.52
166 1 19.36 1.76 3.52
189 1 17.6 3.52 3.52
26 2 1.76 5.28 0
28 1 0 5.28 1.76
32 1 3.52 5.28 1.76
49 1 0 7.04 0
51 1 1.76 7.04 1.76
53 1 3.52 7.04 0
170 1 1.76 5.28 3.52
193 1 0 7.04 3.52
197 1 3.52 7.04 3.52
30 1 5.28 5.28 0
36 1 7.04 5.28 1.76
55 1 5.28 7.04 1.76
57 1 7.04 7.04 0
174 1 5.28 5.28 3.52
201 1 7.04 7.04 3.52
34 1 8.8 5.28 0
38 1 12.32 5.28 0
40 1 10.56 5.28 1.76
59 1 8.8 7.04 1.76
61 1 10.56 7.04 0
63 1 12.32 7.04 1.76
178 1 8.8 5.28 3.52
182 1 12.32 5.28 3.52
205 1 10.56 7.04 3.52
42 1 15.84 5.28 0
44 1 14.08 5.28 1.76
65 1 14.08 7.04 0
67 2 15.84 7.04 1.76
186 1 15.84 5.28 3.52
209 1 14.08 7.04 3.52
46 1 19.36 5.28 0
48 1 17.6 5.28 1.76
69 1 17.6 7.04 0
71 1 19.36 7.04 1.76
190 1 19.36 5.28 3.52
213 1 17.6 7.04 3.52
50 1 1.76 8.8 0
52 2 0 8.8 1.76
56 2 3.52 8.8 1.76
73 1 0 10.56 0
74 1 1.76 12.32 0
75 1 1.76 10.56 1.76
76 1 0 12.32 1.76
77 1 3.52 10.56 0
80 1 3.52 12.32 1.76
194 2 1.76 8.8 3.52
217 1 0 10.56 3.52
218 1 1.76 12.32 3.52
221 1 3.52 10.56 3.52
54 1 5.28 8.8 0
60 1 7.04 8.8 1.76
78 1 5.28 12.32 0
79 1 5.28 10.56 1.76
81 1 7.04 10.56 0
84 2 7.04 12.32 1.76
198 1 5.28 8.8 3.52
222 1 5.28 12.32 3.52
225 2 7.04 10.56 3.52
58 1 8.8 8.8 0
62 2 12.32 8.8 0
64 1 10.56 8.8 1.76
82 1 8.8 12.32 0
83 1 8.8 10.56 1.76
85 1 10.56 10.56 0
86 1 12.32 12.32 0
87 2 12.32 10.56 1.76
88 1 10.56 12.32 1.76
202 1 8.8 8.8 3.52
206 1 12.32 8.8 3.52
226 1 8.8 12.32 3.52
229 1 10.56 10.56 3.52
230 1 12.32 12.32 3.52
66 1 15.84 8.8 0
68 1 14.08 8.8 1.76
89 2 14.08 10.56 0
90 1 15.84 12.32 0
91 1 15.84 10.56 1.76
92 1 14.08 12.32 1.76
210 1 15.84 8.8 3.52
233 1 14.08 10.56 3.52
234 1 15.84 12.32 3.52
70 1 19.36 8.8 0
72 1 17.6 8.8 1.76
93 1 17.6 10.56 0
94 1 19.36 12.32 0
95 1 19.36 10.56 1.76
96 1 17.6 12.32 1.76
214 1 19.36 8.8 3.52
237 2 17.6 10.56 3.52
238 1 19.36 12.32 3.52
97 1 0 14.08 0
98 1 1.76 15.84 0
99 1 1.76 14.08 1.76
100 1 0 15.84 1.76
101 1 3.52 14.08 0
104 1 3.52 15.84 1.76
241 1 0 14.08 3.52
242 1 1.76 15.84 3.52
245 1 3.52 14.08 3.52
102 1 5.28 15.84 0
103 1 5.28 14.08 1.76
105 1 7.04 14.08 0
108 1 7.04 15.84 1.76
246 1 5.28 15.84 3.52
249 1 7.04 14.08 3.52
106 1 8.8 15.84 0
107 1 8.8 14.08 1.76
109 1 10.56 14.08 0
110 1 12.32 15.84 0
111 1 12.32 14.08 1.76
112 1 10.56 15.84 1.76
250 1 8.8 15.84 3.52
253 1 10.56 14.08 3.52
254 1 12.32 15.84 3.52
113 1 14.08 14.08 0
114 1 15.84 15.84 0
115 1 15.84 14.08 1.76
116 2 14.08 15.84 1.76
257 1 14.08 14.08 3.52
258 1 15.84 15.84 3.52
117 2 17.6 14.08 0
118 1 19.36 15.84 0
119 1 19.36 14.08 1.76
120 1 17.6 15.84 1.76
261 1 17.6 14.08 3.52
262 1 19.36 15.84 3.52
121 1 0 17.6 0
122 1 1.76 19.36 0
123 1 1.76 17.6 1.76
124 1 0 19.36 1.76
125 1 3.52 17.6 0
128 2 3.52 19.36 1.76
265 1 0 17.6 3.52
266 1 1.76 19.36 3.52
269 1 3.52 17.6 3.52
126 1 5.28 19.36 0
127 1 5.28 17.6 1.76
129 1 7.04 17.6 0
132 1 7.04 19.36 1.76
270 1 5.28 19.36 3.52
273 1 7.04 17.6 3.52
130 1 8.8 19.36 0
131 1 8.8 17.6 1.76
133 1 10.56 17.6 0
134 1 12.32 19.36 0
135 1 12.32 17.6 1.76
136 2 10.56 19.36 1.76
274 1 8.8 19.36 3.52
277 2 10.56 17.6 3.52
278 1 12.32 19.36 3.52
137 1 14.08 17.6 0
138 1 15.84 19.36 0
139 1 15.84 17.6 1.76
140 1 14.08 19.36 1.76
281 1 14.08 17.6 3.52
282 1 15.84 19.36 3.52
141 1 17.6 17.6 0
142 1 19.36 19.36 0
143 1 19.36 17.6 1.76
144 2 17.6 19.36 1.76
285 1 17.6 17.6 3.52
286 2 19.36 19.36 3.52
147 1 1.76 0 5.28
148 1 0 1.76 5.28
152 1 3.52 1.76 5.28
171 1 1.76 3.52 5.28
289 2 0 0 7.04
290 1 1.76 1.76 7.04
293 1 3.52 0 7.04
313 2 0 3.52 7.04
317 1 3.52 3.52 7.04
151 1 5.28 0 5.28
156 1 7.04 1.76 5.28
175 1 5.28 3.52 5.28
294 1 5.28 1.76 7.04
297 1 7.04 0 7.04
321 1 7.04 3.52 7.04
155 2 8.8 0 5.28
159 1 12.32 0 5.28
160 1 10.56 1.76 5.28
179 1 8.8 3.52 5.28
183 1 12.32 3.52 5.28
298 1 8.8 1.76 7.04
301 1 10.56 0 7.04
302 1 12.32 1.76 7.04
325 2 10.56 3.52 7.04
163 1 15.84 0 5.28
164 1 14.08 1.76 5.28
187 1 15.84 3.52 5.28
305 2 14.08 0 7.04
306 1 15.84 1.76 7.04
329 1 14.08 3.52 7.04
167 1 19.36 0 5.28
168 1 17.6 1.76 5.28
191 1 19.36 3.52 5.28
309 1 17.6 0 7.04
310 1 19.36 1.76 7.04
333 1 17.6 3.52 7.04
172 1 0 5.28 5.28
176 1 3.52 5.28 5.28
195 1 1.76 7.04 5.28
314 1 1.76 5.28 7.04
337 1 0 7.04 7.04
341 2 3.52 7.04 7.04
180 1 7.04 5.28 5.28
199 1 5.28 7.04 5.28
318 1 5.28 5.28 7.04
345 1 7.04 7.04 7.04
184 1 10.56 5.28 5.28
203 1 8.8 7.04 5.28
207 1 12.32 7.04 5.28
322 1 8.8 5.28 7.04
326 1 12.32 5.28 7.04
349 1 10.56 7.04 7.04
188 1 14.08 5.28 5.28
211 1 15.84 7.04 5.28
330 1 15.84 5.28 7.04
353 1 14.08 7.04 7.04
192 1 17.6 5.28 5.28
215 1 19.36 7.04 5.28
334 1 19.36 5.28 7.04
357 1 17.6 7.04 7.04
196 1 0 8.8 5.28
200 2 3.52 8.8 5.28
219 1 1.76 10.56 5.28
220 2 0 12.32 5.28
224 1 3.52 12.32 5.28
338 1 1.76 8.8 7.04
361 1 0 10.56 7.04
362 1 1.76 12.32 7.04
365 1 3.52 10.56 7.04
204 1 7.04 8.8 5.28
223 1 5.28 10.56 5.28
228 1 7.04 12.32 5.28
342 1 5.28 8.8 7.04
366 1 5.28 12.32 7.04
369 1 7.04 10.56 7.04
208 1 10.56 8.8 5.28
227 1 8.8 10.56 5.28
231 1 12.32 10.56 5.28
232 1 10.56 12.32 5.28
346 1 8.8 8.8 7.04
350 1 12.32 8.8 7.04
370 1 8.8 12.32 7.04
373 1 10.56 10.56 7.04
374 1 12.32 12.32 7.04
212 1 14.08 8.8 5.28
235 1 15.84 10.56 5.28
236 1 14.08 12.32 5.28
354 1 15.84 8.8 7.04
377 1 14.08 10.56 7.04
378 1 15.84 12.32 7.04
216 1 17.6 8.8 5.28
239 1 19.36 10.56 5.28
240 2 17.6 12.32 5.28
358 1 19.36 8.8 7.04
381 2 17.6 10.56 7.04
382 1 19.36 12.32 7.04
243 1 1.76 14.08 5.28
244 2 0 15.84 5.28
248 1 3.52 15.84 5.28
385 1 0 14.08 7.04
386 1 1.76 15.84 7.04
389 1 3.52 14.08 7.04
247 1 5.28 14.08 5.28
252 1 7.04 15.84 5.28
390 1 5.28 15.84 7.04
393 1 7.04 14.08 7.04
251 1 8.8 14.08 5.28
255 1 12.32 14.08 5.28
256 1 10.56 15.84 5.28
394 1 8.8 15.84 7.04
397 1 10.56 14.08 7.04
398 1 12.32 15.84 7.04
259 1 15.84 14.08 5.28
260 1 14.08 15.84 5.28
401 1 14.08 14.08 7.04
402 1 15.84 15.84 7.04
263 1 19.36 14.08 5.28
264 1 17.6 15.84 5.28
405 1 17.6 14.08 7.04
406 1 19.36 15.84 7.04
267 1 1.76 17.6 5.28
268 1 0 19.36 5.28
272 1 3.52 19.36 5.28
409 1 0 17.6 7.04
410 1 1.76 19.36 7.04
413 1 3.52 17.6 7.04
271 1 5.28 17.6 5.28
276 1 7.04 19.36 5.28
414 1 5.28 19.36 7.04
417 1 7.04 17.6 7.04
275 1 8.8 17.6 5.28
279 1 12.32 17.6 5.28
280 1 10.56 19.36 5.28
418 1 8.8 19.36 7.04
421 1 10.56 17.6 7.04
422 1 12.32 19.36 7.04
283 1 15.84 17.6 5.28
284 1 14.08 19.36 5.28
425 2 14.08 17.6 7.04
426 1 15.84 19.36 7.04
287 1 19.36 17.6 5.28
288 1 17.6 19.36 5.28
429 1 17.6 17.6 7.04
430 1 19.36 19.36 7.04
291 1 1.76 0 8.8
292 1 0 1.76 8.8
296 1 3.52 1.76 8.8
315 1 1.76 3.52 8.8
433 1 0 0 10.56
434 2 1.76 1.76 10.56
435 1 1.76 0 12.32
436 1 0 1.76 12.32
437 1 3.52 0 10.56
440 2 3.52 1.76 12.32
457 1 0 3.52 10.56
459 1 1.76 3.52 12.32
461 1 3.52 3.52 10.56
295 1 5.28 0 8.8
300 1 7.04 1.76 8.8
319 1 5.28 3.52 8.8
438 1 5.28 1.76 10.56
439 1 5.28 0 12.32
441 1 7.04 0 10.56
444 1 7.04 1.76 12.32
463 1 5.28 3.52 12.32
465 1 7.04 3.52 10.56
299 1 8.8 0 8.8
303 1 12.32 0 8.8
304 1 10.56 1.76 8.8
323 1 8.8 3.52 8.8
327 2 12.32 3.52 8.8
442 2 8.8 1.76 10.56
443 1 8.8 0 12.32
445 1 10.56 0 10.56
446 1 12.32 1.76 10.56
447 1 12.32 0 12.32
448 1 10.56 1.76 12.32
467 1 8.8 3.52 12.32
469 1 10.56 3.52 10.56
471 1 12.32 3.52 12.32
307 1 15.84 0 8.8
308 1 14.08 1.76 8.8
331 2 15.84 3.52 8.8
449 1 14.08 0 10.56
450 1 15.84 1.76 10.56
451 1 15.84 0 12.32
452 1 14.08 1.76 12.32
473 2 14.08 3.52 10.56
475 1 15.84 3.52 12.32
311 1 19.36 0 8.8
312 1 17.6 1.76 8.8
335 1 19.36 3.52 8.8
453 1 17.6 0 10.56
454 1 19.36 1.76 10.56
455 1 19.36 0 12.32
456 2 17.6 1.76 12.32
477 1 17.6 3.52 10.56
479 1 19.36 3.52 12.32
316 2 0 5.28 8.8
320 2 3.52 5.28 8.8
339 1 1.76 7.04 8.8
458 1 1.76 5.28 10.56
460 2 0 5.28 12.32
464 1 3.52 5.28 12.32
481 2 0 7.04 10.56
483 1 1.76 7.04 12.32
485 1 3.52 7.04 10.56
324 1 7.04 5.28 8.8
343 1 5.28 7.04 8.8
462 1 5.28 5.28 10.56
468 1 7.04 5.28 12.32
487 1 5.28 7.04 12.32
489 1 7.04 7.04 10.56
328 1 10.56 5.28 8.8
347 1 8.8 7.04 8.8
351 2 12.32 7.04 8.8
466 1 8.8 5.28 10.56
470 1 12.32 5.28 10.56
472 1 10.56 5.28 12.32
491 1 8.8 7.04 12.32
493 1 10.56 7.04 10.56
495 1 12.32 7.04 12.32
332 1 14.08 5.28 8.8
355 2 15.84 7.04 8.8
474 1 15.84 5.28 10.56
476 1 14.08 5.28 12.32
497 1 14.08 7.04 10.56
499 1 15.84 7.04 12.32
336 1 17.6 5.28 8.8
359 1 19.36 7.04 8.8
478 1 19.36 5.28 10.56
480 1 17.6 5.28 12.32
501 1 17.6 7.04 10.56
503 1 19.36 7.04 12.32
340 1 0 8.8 8.8
344 1 3.52 8.8 8.8
363 1 1.76 10.56 8.8
364 1 0 12.32 8.8
368 1 3.52 12.32 8.8
482 1 1.76 8.8 10.56
484 1 0 8.8 12.32
488 1 3.52 8.8 12.32
505 1 0 10.56 10.56
506 1 1.76 12.32 10.56
507 1 1.76 10.56 12.32
508 1 0 12.32 12.32
509 1 3.52 10.56 10.56
512 1 3.52 12.32 12.32
348 1 7.04 8.8 8.8
367 1 5.28 10.56 8.8
372 1 7.04 12.32 8.8
486 1 5.28 8.8 10.56
492 1 7.04 8.8 12.32
510 2 5.28 12.32 10.56
511 1 5.28 10.56 12.32
513 2 7.04 10.56 10.56
516 1 7.04 12.32 12.32
352 2 10.56 8.8 8.8
371 1 8.8 10.56 8.8
375 1 12.32 10.56 8.8
376 1 10.56 12.32 8.8
490 1 8.8 8.8 10.56
494 1 12.32 8.8 10.56
496 1 10.56 8.8 12.32
514 1 8.8 12.32 10.56
515 1 8.8 10.56 12.32
517 1 10.56 10.56 10.56
518 1 12.32 12.32 10.56
519 1 12.32 10.56 12.32
520 1 10.56 12.32 12.32
356 1 14.08 8.8 8.8
379 1 15.84 10.56 8.8
380 1 14.08 12.32 8.8
498 1 15.84 8.8 10.56
500 1 14.08 8.8 12.32
521 1 14.08 10.56 10.56
522 1 15.84 12.32 10.56
523 1 15.84 10.56 12.32
524 1 14.08 12.32 12.32
360 1 17.6 8.8 8.8
383 1 19.36 10.56 8.8
384 1 17.6 12.32 8.8
502 1 19.36 8.8 10.56
504 1 17.6 8.8 12.32
525 1 17.6 10.56 10.56
526 1 19.36 12.32 10.56
527 1 19.36 10.56 12.32
528 1 17.6 12.32 12.32
387 1 1.76 14.08 8.8
388 1 0 15.84 8.8
392 1 3.52 15.84 8.8
529 1 0 14.08 10.56
530 1 1.76 15.84 10.56
531 1 1.76 14.08 12.32
532 2 0 15.84 12.32
533 1 3.52 14.08 10.56
536 1 3.52 15.84 12.32
391 1 5.28 14.08 8.8
396 1 7.04 15.84 8.8
534 1 5.28 15.84 10.56
535 1 5.28 14.08 12.32
537 1 7.04 14.08 10.56
540 2 7.04 15.84 12.32
395 1 8.8 14.08 8.8
399 1 12.32 14.08 8.8
400 1 10.56 15.84 8.8
538 1 8.8 15.84 10.56
539 1 8.8 14.08 12.32
541 1 10.56 14.08 10.56
542 1 12.32 15.84 10.56
543 1 12.32 14.08 12.32
544 1 10.56 15.84 12.32
403 1 15.84 14.08 8.8
404 1 14.08 15.84 8.8
545 1 14.08 14.08 10.56
546 1 15.84 15.84 10.56
547 2 15.84 14.08 12.32
548 1 14.08 15.84 12.32
407 2 19.36 14.08 8.8
408 1 17.6 15.84 8.8
549 1 17.6 14.08 10.56
550 1 19.36 15.84 10.56
551 1 19.36 14.08 12.32
552 1 17.6 15.84 12.32
411 1 1.76 17.6 8.8
412 1 0 19.36 8.8
416 1 3.52 19.36 8.8
553 2 0 17.6 10.56
554 1 1.76 19.36 10.56
555 1 1.76 17.6 12.32
556 1 0 19.36 12.32
557 1 3.52 17.6 10.56
560 2 3.52 19.36 12.32
415 1 5.28 17.6 8.8
420 1 7.04 19.36 8.8
558 1 5.28 19.36 10.56
559 1 5.28 17.6 12.32
561 1 7.04 17.6 10.56
564 1 7.04 19.36 12.32
419 1 8.8 17.6 8.8
423 2 12.32 17.6 8.8
424 1 10.56 19.36 8.8
562 2 8.8 19.36 10.56
563 1 8.8 17.6 12.32
565 1 10.56 17.6 10.56
566 1 12.32 19.36 10.56
567 1 12.32 17.6 12.32
568 1 10.56 19.36 12.32
427 1 15.84 17.6 8.8
428 1 14.08 19.36 8.8
569 1 14.08 17.6 10.56
570 1 15.84 19.36 10.56
571 1 15.84 17.6 12.32
572 1 14.08 19.36 12.32
431 1 19.36 17.6 8.8
432 1 17.6 19.36 8.8
573 1 17.6 17.6 10.56
574 2 19.36 19.36 10.56
575 2 19.36 17.6 12.32
576 1 17.6 19.36 12.32
577 1 0 0 14.08
578 1 1.76 1.76 14.08
579 1 1.76 0 15.84
580 1 0 1.76 15.84
581 1 3.52 0 14.08
584 1 3.52 1.76 15.84
601 1 0 3.52 14.08
603 1 1.76 3.52 15.84
605 1 3.52 3.52 14.08
582 1 5.28 1.76 14.08
583 1 5.28 0 15.84
585 1 7.04 0 14.08
588 1 7.04 1.76 15.84
607 1 5.28 3.52 15.84
609 1 7.04 3.52 14.08
586 1 8.8 1.76 14.08
587 1 8.8 0 15.84
589 1 10.56 0 14.08
590 1 12.32 1.76 14.08
591 1 12.32 0 15.84
592 1 10.56 1.76 15.84
611 1 8.8 3.52 15.84
613 1 10.56 3.52 14.08
615 2 12.32 3.52 15.84
593 2 14.08 0 14.08
594 1 15.84 1.76 14.08
595 1 15.84 0 15.84
596 1 14.08 1.76 15.84
617 1 14.08 3.52 14.08
619 1 15.84 3.52 15.84
597 1 17.6 0 14.08
598 1 19.36 1.76 14.08
599 1 19.36 0 15.84
600 1 17.6 1.76 15.84
621 1 17.6 3.52 14.08
623 1 19.36 3.52 15.84
602 1 1.76 5.28 14.08
604 2 0 5.28 15.84
608 1 3.52 5.28 15.84
625 1 0 7.04 14.08
627 1 1.76 7.04 15.84
629 1 3.52 7.04 14.08
606 1 5.28 5.28 14.08
612 1 7.04 5.28 15.84
631 1 5.28 7.04 15.84
633 1 7.04 7.04 14.08
610 1 8.8 5.28 14.08
614 1 12.32 5.28 14.08
616 1 10.56 5.28 15.84
635 1 8.8 7.04 15.84
637 1 10.56 7.04 14.08
639 1 12.32 7.04 15.84
618 1 15.84 5.28 14.08
620 2 14.08 5.28 15.84
641 1 14.08 7.04 14.08
643 1 15.84 7.04 15.84
622 1 19.36 5.28 14.08
624 1 17.6 5.28 15.84
645 1 17.6 7.04 14.08
647 1 19.36 7.04 15.84
626 1 1.76 8.8 14.08
628 1 0 8.8 15.84
632 1 3.52 8.8 15.84
649 1 0 10.56 14.08
650 1 1.76 12.32 14.08
651 1 1.76 10.56 15.84
652 1 0 12.32 15.84
653 1 3.52 10.56 14.08
656 1 3.52 12.32 15.84
630 1 5.28 8.8 14.08
636 1 7.04 8.8 15.84
654 1 5.28 12.32 14.08
655 1 5.28 10.56 15.84
657 1 7.04 10.56 14.08
660 1 7.04 12.32 15.84
634 1 8.8 8.8 14.08
638 1 12.32 8.8 14.08
640 2 10.56 8.8 15.84
658 1 8.8 12.32 14.08
659 1 8.8 10.56 15.84
661 1 10.56 10.56 14.08
662 1 12.32 12.32 14.08
663 1 12.32 10.56 15.84
664 1 10.56 12.32 15.84
642 1 15.84 8.8 14.08
644 1 14.08 8.8 15.84
665 2 14.08 10.56 14.08
666 1 15.84 12.32 14.08
667 1 15.84 10.56 15.84
668 1 14.08 12.32 15.84
646 1 19.36 8.8 14.08
648 1 17.6 8.8 15.84
669 1 17.6 10.56 14.08
670 1 19.36 12.32 14.08
671 1 19.36 10.56 15.84
672 1 17.6 12.32 15.84
673 1 0 14.08 14.08
674 1 1.76 15.84 14.08
675 2 1.76 14.08 15.84
676 1 0 15.84 15.84
677 1 3.52 14.08 14.08
680 1 3.52 15.84 15.84
678 1 5.28 15.84 14.08
679 2 5.28 14.08 15.84
681 1 7.04 14.08 14.08
684 2 7.04 15.84 15.84
682 1 8.8 15.84 14.08
683 2 8.8 14.08 15.84
685 1 10.56 14.08 14.08
686 1 12.32 15.84 14.08
687 1 12.32 14.08 15.84
688 1 10.56 15.84 15.84
689 1 14.08 14.08 14.08
690 1 15.84 15.84 14.08
691 1 15.84 14.08 15.84
692 1 14.08 15.84 15.84
693 1 17.6 14.08 14.08
694 1 19.36 15.84 14.08
695 1 19.36 14.08 15.84
696 1 17.6 15.84 15.84
697 1 0 17.6 14.08
698 1 1.76 19.36 14.08
699 2 1.76 17.6 15.84
700 1 0 19.36 15.84
701 1 3.52 17.6 14.08
704 1 3.52 19.36 15.84
702 1 5.28 19.36 14.08
703 1 5.28 17.6 15.84
705 1 7.04 17.6 14.08
708 1 7.04 19.36 15.84
706 1 8.8 19.36 14.08
707 1 8.8 17.6 15.84
709 1 10.56 17.6 14.08
710 1 12.32 19.36 14.08
711 1 12.32 17.6 15.84
712 1 10.56 19.36 15.84
713 1 14.08 17.6 14.08
714 1 15.84 19.36 14.08
715 1 15.84 17.6 15.84
716 1 14.08 19.36 15.84
717 1 17.6 17.6 14.08
718 1 19.36 19.36 14.08
719 1 19.36 17.6 15.84
720 1 17.6 19.36 15.84
721 1 0 0 17.6
722 1 1.76 1.76 17.6
723 1 1.76 0 19.36
724 1 0 1.76 19.36
725 1 3.52 0 17.6
728 1 3.52 1.76 19.36
745 1 0 3.52 17.6
747 1 1.76 3.52 19.36
749 1 3.52 3.52 17.6
726 1 5.28 1.76 17.6
727 1 5.28 0 19.36
729 1 7.04 0 17.6
732 1 7.04 1.76 19.36
751 1 5.28 3.52 19.36
753 1 7.04 3.52 17.6
730 1 8.8 1.76 17.6
731 1 8.8 0 19.36
733 1 10.56 0 17.6
734 1 12.32 1.76 17.6
735 1 12.32 0 19.36
736 1 10.56 1.76 19.36
755 1 8.8 3.52 19.36
757 1 10.56 3.52 17.6
759 1 12.32 3.52 19.36
737 1 14.08 0 17.6
738 1 15.84 1.76 17.6
739 1 15.84 0 19.36
740 1 14.08 1.76 19.36
761 1 14.08 3.52 17.6
763 1 15.84 3.52 19.36
741 1 17.6 0 17.6
742 1 19.36 1.76 17.6
743 1 19.36 0 19.36
744 1 17.6 1.76 19.36
765 1 17.6 3.52 17.6
767 1 19.36 3.52 19.36
746 1 1.76 5.28 17.6
748 1 0 5.28 19.36
752 1 3.52 5.28 19.36
769 1 0 7.04 17.6
771 1 1.76 7.04 19.36
773 1 3.52 7.04 17.6
750 1 5.28 5.28 17.6
756 1 7.04 5.28 19.36
775 1 5.28 7.04 19.36
777 1 7.04 7.04 17.6
754 1 8.8 5.28 17.6
758 1 12.32 5.28 17.6
760 1 10.56 5.28 19.36
779 2 8.8 7.04 19.36
781 1 10.56 7.04 17.6
783 1 12.32 7.04 19.36
762 1 15.84 5.28 17.6
764 1 14.08 5.28 19.36
785 1 14.08 7.04 17.6
787 1 15.84 7.04 19.36
766 1 19.36 5.28 17.6
768 1 17.6 5.28 19.36
789 1 17.6 7.04 17.6
791 1 19.36 7.04 19.36
770 2 1.76 8.8 17.6
772 1 0 8.8 19.36
776 1 3.52 8.8 19.36
793 1 0 10.56 17.6
794 1 1.76 12.32 17.6
795 1 1.76 10.56 19.36
796 1 0 12.32 19.36
797 1 3.52 10.56 17.6
800 2 3.52 12.32 19.36
774 1 5.28 8.8 17.6
780 1 7.04 8.8 19.36
798 1 5.28 12.32 17.6
799 1 5.28 10.56 19.36
801 1 7.04 10.56 17.6
804 1 7.04 12.32 19.36
778 1 8.8 8.8 17.6
782 1 12.32 8.8 17.6
784 1 10.56 8.8 19.36
802 1 8.8 12.32 17.6
803 1 8.8 10.56 19.36
805 2 10.56 10.56 17.6
806 1 12.32 12.32 17.6
807 2 12.32 10.56 19.36
808 1 10.56 12.32 19.36
786 1 15.84 8.8 17.6
788 2 14.08 8.8 19.36
809 2 14.08 10.56 17.6
810 1 15.84 12.32 17.6
811 1 15.84 10.56 19.36
812 1 14.08 12.32 19.36
790 1 19.36 8.8 17.6
792 1 17.6 8.8 19.36
813 1 17.6 10.56 17.6
814 1 19.36 12.32 17.6
815 1 19.36 10.56 19.36
816 1 17.6 12.32 19.36
817 1 0 14.08 17.6
818 2 1.76 15.84 17.6
819 1 1.76 14.08 19.36
820 1 0 15.84 19.36
821 1 3.52 14.08 17.6
824 1 3.52 15.84 19.36
822 1 5.28 15.84 17.6
823 1 5.28 14.08 19.36
825 1 7.04 14.08 17.6
828 2 7.04 15.84 19.36
826 1 8.8 15.84 17.6
827 1 8.8 14.08 19.36
829 1 10.56 14.08 17.6
830 1 12.32 15.84 17.6
831 1 12.32 14.08 19.36
832 1 10.56 15.84 19.36
833 1 14.08 14.08 17.6
834 1 15.84 15.84 17.6
835 1 15.84 14.08 19.36
836 1 14.08 15.84 19.36
837 1 17.6 14.08 17.6
838 1 19.36 15.84 17.6
839 2 19.36 14.08 19.36
840 1 17.6 15.84 19.36
841 1 0 17.6 17.6
842 1 1.76 19.36 17.6
843 2 1.76 17.6 19.36
844 1 0 19.36 19.36
845 1 3.52 17.6 17.6
848 1 3.52 19.36 19.36
846 1 5.28 19.36 17.6
847 1 5.28 17.6 19.36
849 1 7.04 17.6 17.6
852 1 7.04 19.36 19.36
850 1 8.8 19.36 17.6
851 1 8.8 17.6 19.36
853 1 10.56 17.6 17.6
854 2 12.32 19.36 17.6
855 1 12.32 17.6 19.36
856 1 10.56 19.36 19.36
857 1 14.08 17.6 17.6
858 1 15.84 19.36 17.6
859 1 15.84 17.6 19.36
860 1 14.08 19.36 19.36
861 1 17.6 17.6 17.6
862 1 19.36 19.36 17.6
863 1 19.36 17.6 19.36
864 1 17.6 19.36 19.36
ITEM: TIMESTEP
10000
ITEM: NUMBER OF ATOMS
864
ITEM: BOX BOUNDS pp pp pp
-7.8700477524991541e-02 2.1198700477524689e+01
-7.8700477524991541e-02 2.1198700477524689e+01
-7.8700477524991541e-02 2.1198700477524689e+01
ITEM: ATOMS id type x y z
8 2 3.41028 1.77936 1.66421
27 1 1.69806 3.37698 1.65353
146 1 1.68089 1.67698 3.36809
173 1 3.54078 3.40972 3.40154
3 2 1.55979 -0.0285008 1.62941
2 1 1.60942 1.67484 -0.0982296
5 1 3.51363 -0.044087 -0.0473133
12 1 6.99839 1.61142 1.71252
31 1 5.26247 3.38591 1.5915
150 2 5.15596 1.72261 3.40525
177 1 6.98104 3.42622 3.40639
153 1 7.05961 -0.0369881 3.47942
7 1 5.25387 -0.0413332 1.71117
16 1 10.6158 1.56208 1.85065
35 1 8.69128 3.36181 1.67545
39 2 12.3101 3.34707 1.84659
154 1 8.71139 1.75526 3.51365
158 1 12.4181 1.8247 3.46464
181 2 10.6284 3.41566 3.28506
157 1 10.5019 -0.0352197 3.56559
37 2 10.5081 3.44075 0.0122124
20 1 13.9827 1.60657 1.60862
43 1 15.8663 3.43908 1.53916
162 1 15.9274 1.63408 3.37492
185 1 14.1605 3.44224 3.48903
41 1 14.1256 3.48108 -0.0753405
4 1 21.0027 1.54339 1.59897
169 1 21.1751 3.26804 3.58073
24 2 17.6989 1.62423 1.65221
47 1 19.4379 3.3949 1.74356
166 2 19.3049 1.71818 3.36935
189 1 17.5902 3.42419 3.47886
22 2 19.2654 1.75893 -0.0121762
32 1 3.53155 5.15798 1.62609
51 1 1.58094 6.89549 1.67975
170 1 1.76888 5.09307 3.40975
197 1 3.37213 6.90905 3.37581
28 1 -0.0204641 5.12628 1.77749
53 1 3.53791 6.8847 -0.0794536
193 2 -0.0429453 6.94689 3.51937
36 1 6.89134 5.24426 1.79345
55 2 5.19216 7.12407 1.61982
174 2 5.2504 5.16434 3.39503
201 1 6.96362 6.99308 3.41698
40 1 10.6065 5.1945 1.67355
59 1 8.87873 7.03343 1.68126
63 1 12.3472 7.01493 1.7284
178 1 8.87934 5.11279 3.4405
182 1 12.3888 5.19207 3.43589
205 1 10.5978 6.89465 3.47984
34 1 8.71533 5.22495 0.0109241
38 1 12.3273 5.2893 -0.0319481
44 1 14.23 5.09672 1.7168
67 2 16.0176 7.05283 1.65355
186 1 15.9884 5.34924 3.40073
209 1 14.1234 6.86627 3.4989
48 1 17.7271 5.18298 1.63674
71 2 19.5921 6.96887 1.70309
190 1 19.4836 5.10986 3.39451
213 1 17.7227 6.95896 3.2685
69 1 17.7629 7.06509 -0.0379888
49 1 21.1928 7.0734 0.04847
194 2 1.59285 8.84781 3.51333
56 2 3.51441 8.72503 1.61104
75 1 1.74152 10.5649 1.73975
80 1 3.42173 12.1904 1.77342
218 1 1.7101 12.3913 3.51316
221 1 3.52445 10.4817 3.3938
217 1 0.0104066 10.5972 3.50867
50 1 1.77961 8.84411 -0.0279826
74 1 1.59309 12.2874 0.0495789
52 1 0.00495101 8.84809 1.71276
77 1 3.43646 10.6207 -0.00657772
60 1 7.01313 8.74737 1.72449
79 2 5.35097 10.5914 1.65236
84 2 7.04953 12.1804 1.59573
198 1 5.08343 8.71838 3.38533
222 1 5.21115 12.2713 3.36706
225 2 6.97632 10.5078 3.37672
78 2 5.12488 12.3472 0.034179
54 1 5.24925 8.74536 -0.0484011
64 1 10.7537 8.79493 1.69213
83 1 8.73837 10.5205 1.68579
87 2 12.4461 10.5863 1.90558
88 1 10.4573 12.2425 1.81186
202 1 8.71797 8.67528 3.47861
206 1 12.4403 8.75229 3.65224
226 1 8.75784 12.2546 3.36362
229 2 10.6883 10.4288 3.3342
230 1 12.3198 12.3078 3.41401
85 2 10.6078 10.4338 -0.0213133
62 2 12.4572 8.81417 -0.0894734
82 1 8.77999 12.2427 -0.0503625
68 1 14.2463 8.85707 1.74134
91 1 15.8223 10.6346 1.64196
92 1 14.1372 12.3829 1.66882
210 1 15.7881 8.78195 3.55218
233 1 14.2187 10.5923 3.52158
234 1 16.0256 12.3863 3.52403
89 2 14.0323 10.7744 -0.0325904
90 1 15.7572 12.4719 0.00484032
76 1 21.0789 12.4159 1.68425
72 1 17.6318 8.79632 1.7651
95 1 19.3219 10.462 1.85899
96 1 17.5944 12.318 1.67932
214 1 19.6285 8.61626 3.49287
237 1 17.5242 10.59 3.45267
238 1 19.3266 12.2225 3.55175
94 1 19.4213 12.3394 -0.0597253
99 1 1.69555 14.2792 1.76415
104 1 3.53625 15.9542 1.65884
242 1 1.72507 15.956 3.47582
245 1 3.45214 14.2648 3.49433
101 1 3.38615 14.1394 -0.0707963
100 1 -0.0520162 15.8869 1.97495
98 1 1.66762 16.0135 -0.0048216
103 1 5.15497 13.9733 1.59762
108 1 7.00594 15.8481 1.72701
246 1 5.28568 15.8757 3.37022
249 1 6.99818 14.1864 3.46239
105 1 6.95073 14.1316 -0.0117763
102 1 5.23486 15.8298 0.0614435
107 2 8.75426 14.0565 1.80114
111 1 12.2591 14.1567 1.70636
112 1 10.4347 16.002 1.72947
250 1 8.71474 15.853 3.48593
253 1 10.5486 14.0388 3.3932
254 1 12.2652 15.9107 3.27539
109 1 10.4505 14.0233 0.0749119
110 1 12.3151 15.822 -0.0357182
106 1 8.70568 15.8099 -0.0210948
115 1 16.1667 14.0982 1.63742
116 1 14.1743 15.7346 1.77305
257 1 14.1912 14.0895 3.47519
258 1 15.9933 15.7626 3.54783
114 1 15.9821 15.8715 -0.0767476
113 2 14.1752 14.1612 -0.0687597
241 1 21.1628 14.14 3.48781
119 1 19.3492 14.0873 1.69033
120 1 17.659 15.8172 1.71414
261 1 17.7521 14.1029 3.48228
262 1 19.3792 15.8506 3.54376
118 1 19.4536 15.9387 -0.0176595
97 1 21.0923 14.1452 0.0637355
149 1 3.43166 21.1188 3.45776
123 1 1.65065 17.6838 1.74951
128 2 3.39185 19.4927 1.76523
266 1 1.63785 19.4528 3.34418
269 1 3.45396 17.592 3.36562
125 1 3.47175 17.7151 -0.0518206
122 1 1.60554 19.5366 0.00214589
127 1 5.17902 17.6605 1.62043
132 1 7.02429 19.4294 1.76273
270 1 5.21649 19.3375 3.39249
273 1 6.96817 17.7328 3.44878
126 1 5.20488 19.4237 -0.0420976
129 1 7.014 17.6316 -0.0582197
15 1 12.2501 21.1855 1.69513
11 1 8.892 21.0979 1.66938
131 1 8.85519 17.7432 1.81326
135 1 12.4558 17.6466 1.60009
136 2 10.6126 19.3265 1.76281
274 1 8.77958 19.4097 3.59867
277 2 10.6866 17.704 3.38897
278 1 12.2565 19.5905 3.45691
133 1 10.5145 17.7287 0.0398025
134 1 12.2965 19.5169 -0.0293945
161 1 14.0963 21.123 3.3852
19 1 15.924 20.9644 1.74826
17 1 14.0846 21.0967 -0.0762829
139 1 15.8249 17.5561 1.72303
140 1 14.0379 19.506 1.74178
281 1 14.1001 17.7134 3.49168
282 1 15.9319 19.3392 3.38646
265 1 21.1729 17.786 3.65168
145 1 21.0671 21.127 3.48561
21 1 17.6215 20.9881 0.0394975
124 1 21.0242 19.4912 1.69251
165 1 17.6939 21.0357 3.53758
23 1 19.231 21.2135 1.7391
143 1 19.4166 17.5994 1.70258
144 2 17.5769 19.3472 1.77178
285 1 17.6639 17.6748 3.57327
286 2 19.3035 19.3791 3.48726
141 1 17.5599 17.667 -0.0357273
142 2 19.2807 19.361 0.0663957
152 1 3.46688 1.63541 5.1846
171 1 1.73049 3.36937 5.13067
290 1 1.69806 1.7569 6.93046
317 1 3.51343 3.47785 6.96366
147 1 1.63491 -0.0669326 5.23727
156 1 7.06876 1.76103 5.29034
175 1 5.35444 3.35934 5.23539
294 1 5.30651 1.6871 7.0107
321 1 7.00784 3.51977 7.01166
297 1 7.14177 0.0606469 7.00218
160 1 10.5769 1.90261 5.12754
179 1 8.76866 3.53438 5.20303
183 1 12.4074 3.47276 5.29054
298 1 8.74349 1.68642 7.11623
302 1 12.3225 1.81391 6.96041
325 2 10.6176 3.38433 7.06491
301 1 10.6197 0.0792558 7.07325
155 2 9.07737 -0.0356729 5.22613
164 1 14.1939 1.60258 5.19547
187 1 15.9546 3.3624 5.28879
306 1 15.908 1.63 6.97404
329 1 14.1143 3.47336 7.10686
313 2 21.1082 3.38695 7.0958
289 2 21.1031 0.0923014 7.1111
148 1 21.1465 1.71911 5.24258
168 1 17.6551 1.66395 5.24459
191 1 19.3979 3.33088 5.16754
310 2 19.4096 1.59636 7.22489
333 1 17.6363 3.43536 6.90497
309 1 17.7331 -0.0141886 7.06739
167 1 19.4348 0.0159264 5.24398
176 1 3.49014 5.18365 5.2075
195 1 1.59167 6.93251 5.25587
314 1 1.7141 5.08964 7.02178
341 2 3.52015 6.99331 7.11097
172 1 -0.0695527 5.10439 5.19137
337 1 0.0152711 7.01989 7.03882
180 1 7.03983 5.30972 5.15337
199 1 5.31134 7.0313 5.15288
318 1 5.09554 5.29776 6.89327
345 1 6.96147 6.91498 7.08289
184 1 10.593 5.25491 5.13223
203 1 8.72 7.00389 5.31353
207 1 12.43 7.0264 5.30452
322 1 8.78519 5.28231 7.04418
326 1 12.2722 5.26549 6.9747
349 1 10.5429 6.96939 6.89373
188 1 14.242 5.1495 5.29852
211 1 16.0121 7.01795 5.22471
330 1 15.9485 5.19155 7.01733
353 1 14.1715 7.046 6.98208
192 1 17.6321 5.25138 5.15126
215 1 19.452 7.00221 5.14302
334 1 19.4529 5.14854 6.98667
357 2 17.804 6.97251 6.98014
200 2 3.38729 8.6097 5.1896
219 1 1.85861 10.5081 5.15261
224 1 3.58092 12.3127 5.18987
338 1 1.75668 8.68162 6.94109
362 1 1.7259 12.4161 6.87877
365 1 3.56612 10.4833 6.94545
361 1 0.0311277 10.5418 6.85925
196 1 -0.0190779 8.98375 5.19887
204 2 7.09685 8.8232 5.29887
223 1 5.29206 10.6398 5.14631
228 1 6.91102 12.3761 5.10891
342 1 5.22769 8.77737 6.9517
366 2 5.26097 12.3328 6.87224
369 1 7.04899 10.6221 6.85767
208 1 10.5278 8.70161 5.162
227 1 8.88179 10.5948 5.10122
231 1 12.3007 10.6289 5.24305
232 1 10.5649 12.3257 5.2635
346 2 8.73715 8.80826 6.98893
350 1 12.2237 8.75611 6.89209
370 1 8.74991 12.3272 6.99085
373 1 10.5311 10.6131 7.05949
374 1 12.3464 12.4382 7.01854
212 2 14.1846 8.74902 5.34713
235 1 15.6954 10.6456 5.30287
236 1 14.0625 12.3794 5.41498
354 1 15.8715 8.8673 6.9585
377 1 14.0498 10.6576 6.94506
378 1 15.927 12.2911 7.18424
220 2 21.1542 12.2838 5.35095
216 1 17.7636 8.85218 5.16518
239 2 19.3935 10.6837 5.18595
240 2 17.7353 12.1852 5.34512
358 1 19.3789 8.70288 6.84129
381 1 17.713 10.4011 7.01228
382 1 19.4911 12.3364 7.0519
243 1 1.67919 14.2253 5.26438
248 1 3.49764 15.9447 5.20355
386 1 1.55995 15.9064 7.04866
389 1 3.52952 14.113 6.9453
244 2 -0.030029 15.7968 5.39348
247 1 5.28095 14.2377 5.32993
252 1 7.13875 15.9518 5.32861
390 1 5.36825 15.9088 7.07799
393 1 7.00726 14.1353 6.92734
251 1 8.62555 14.1277 5.17669
255 1 12.3433 14.1642 5.23397
256 1 10.476 15.9699 5.19153
394 1 8.84134 15.9359 7.06635
397 1 10.4508 13.9839 7.01426
398 1 12.283 15.8176 7.01328
259 1 15.9219 14.1218 5.35212
260 1 14.0091 15.9456 5.22729
401 1 14.125 14.1493 7.0838
402 1 15.8454 16.1184 7.17013
385 2 21.1285 14.0509 6.92004
263 1 19.4578 14.1803 5.22913
264 1 17.6451 15.9139 5.32514
405 1 17.5614 14.0815 7.14583
406 1 19.3051 15.7783 7.04432
293 1 3.52662 21.172 6.95935
267 1 1.82797 17.7221 5.19055
272 2 3.50248 19.3231 5.09051
410 1 1.67769 19.4912 6.9092
413 1 3.53842 17.7503 6.91735
409 1 -0.0616646 17.7207 7.1003
151 1 5.18233 21.2084 5.18034
271 1 5.19856 17.6662 5.12109
276 1 7.04837 19.5379 5.24183
414 1 5.30385 19.4923 6.86941
417 1 7.0182 17.683 7.08956
159 1 12.2306 21.2024 5.34645
275 2 8.65623 17.7944 5.32384
279 1 12.3951 17.6608 5.34777
280 1 10.625 19.4441 5.16256
418 2 8.67401 19.6466 6.87152
421 1 10.5502 17.7125 6.95743
422 1 12.4245 19.5075 6.92565
305 1 14.139 21.2022 7.04506
163 1 15.9424 21.1737 5.28596
283 1 15.8345 17.653 5.36111
284 1 14.1217 19.5431 5.2195
425 2 14.0629 17.6187 7.10843
426 1 15.8321 19.4903 6.96279
268 1 21.1142 19.4527 5.17512
287 1 19.5708 17.6149 5.30584
288 1 17.6845 19.3774 5.28383
429 1 17.5421 17.9481 7.08508
430 1 19.547 19.4515 7.08939
296 1 3.55575 1.72226 8.67352
315 1 1.69368 3.3181 8.84029
434 1 1.74241 1.70429 10.5996
440 2 3.47272 1.52743 12.2926
459 1 1.92033 3.5215 12.3798
461 1 3.44915 3.43642 10.5389
433 1 -0.0259197 -0.0945112 10.6612
291 1 1.59665 -0.0921159 8.67754
437 1 3.61772 0.0461206 10.453
436 1 -0.0707282 1.63621 12.33
300 1 7.14803 1.7466 8.87513
319 1 5.27186 3.65255 8.74883
438 1 5.27567 1.82341 10.5308
444 1 7.06549 1.72019 12.1689
463 1 5.29525 3.48205 12.3528
465 1 7.02688 3.66799 10.4571
295 1 5.39122 0.0124609 8.60795
304 2 10.6644 1.69402 8.82967
323 1 8.86826 3.42254 8.90231
327 2 12.4499 3.56218 8.71834
442 2 8.88245 1.64251 10.4188
446 1 12.2495 1.80981 10.5841
448 1 10.5026 1.68078 12.2676
467 1 8.83657 3.40991 12.2478
469 1 10.5647 3.46106 10.4577
471 2 12.3546 3.69534 12.2725
445 1 10.5124 -0.0250941 10.5667
443 1 8.72417 0.0292684 12.5118
447 1 12.2391 -0.0438145 12.3284
308 1 14.2274 1.79537 8.70355
331 2 15.9578 3.63617 8.85962
450 1 15.9346 1.64369 10.547
452 1 14.1496 1.77165 12.2741
473 2 14.0653 3.49199 10.4517
475 1 15.838 3.49153 12.191
449 1 14.023 -0.00394626 10.4796
457 1 21.0813 3.42552 10.6922
292 2 21.1608 1.62038 8.85073
312 1 17.6414 1.69558 8.79012
335 1 19.3332 3.49387 8.71271
454 1 19.2726 1.71318 10.6159
456 2 17.6029 1.68616 12.436
477 1 17.705 3.50373 10.5313
479 1 19.2444 3.52673 12.3853
455 1 19.3442 -0.0594303 12.4802